LAMMPS data file via write_data, version 29 Aug 2024, timestep = 3020679, units = metal

3003 atoms
4 atom types

-0.3404261874375365 33.55162669358984 xlo xhi
-0.3404261874375365 33.55162669358984 ylo yhi
-0.3404261874375365 33.55162669358984 zlo zhi

Masses

1 55.84499998563419
2 22.98976927408601
3 15.99899999588435
4 30.97376199003218

Atoms # charge/kk

2823 3 -1.2 2.6617977078851 5.194984838194727 1.383419654680957 1 0 -1
2925 3 -1.2 3.2094066958811203 1.9741552262359336 3.440739874149249 -2 1 1
1221 4 3 1.321437401124431 5.230910632918631 2.0297340658953424 1 0 -1
734 1 1.2 4.9376358835272605 0.7736990760203784 3.422628115409974 0 -1 -1
938 4 3 0.10283389476970306 0.7043661107395927 4.829919709325244 1 1 0
853 1 1.2 1.7218391007363607 1.6412849193801136 2.0101787146556926 -3 0 1
303 2 0.6 4.226559506128846 3.0153676586875124 1.5592298223293481 -3 1 1
1748 3 -1.2 0.8601464466184141 3.813899054811804 2.264874466722076 1 0 -1
106 2 0.6 3.149880677662179 1.6145960729246476 5.508263578692803 -2 1 3
2675 3 -1.2 2.655202959607589 4.47677053539977 5.8352846484432 0 -1 -2
1516 3 -1.2 0.591511237118415 1.9228634528549389 5.544303392067637 1 1 0
159 2 0.6 0.6488072684988433 4.032786019871684 4.941417093072434 -3 1 2
2178 3 -1.2 5.439379150521657 0.4969537206027529 1.3887316414592288 0 0 1
2452 3 -1.2 5.397166008659968 0.8539355671046407 5.4929884288666715 0 0 2
261 2 0.6 4.501562831551953 3.715269152682409 4.4169913899775 7 -2 1
2453 3 -1.2 2.50730740192882 1.7615058115329871 0.14489879876949216 0 0 0
2776 3 -1.2 1.3518919220919257 5.91238971465886 3.3421216210224456 1 0 -1
1895 3 -1.2 5.554242354495649 5.964703893507772 5.248521556368532 0 1 -1
2819 3 -1.2 -0.183994314022772 6.300523727138552 5.858652907401876 1 -1 -2
1726 3 -1.2 0.4057726169116517 5.964655424989833 1.114134487670561 1 0 -1
2029 3 -1.2 1.211098301414787 -0.29058190866324907 4.648218304311168 1 1 0
2808 3 -1.2 5.52036972631894 5.988862108170046 -0.1926095311634911 0 0 2
1192 4 3 6.434278593479398 0.5180016088705257 0.221068956528625 1 1 1
2466 3 -1.2 6.6024766110570425 2.817111779866427 3.292243683891216 -1 1 1
2191 3 -1.2 7.084142478536858 3.4940669652052057 5.548325471378011 -1 1 1
2216 3 -1.2 8.221960443059825 4.62004744509421 3.69208827065778 -1 0 1
2817 3 -1.2 7.8633640598774015 6.257063392532684 0.1816445190093225 0 0 2
1277 4 3 7.654558315741138 3.347941964012975 4.252492317515962 -1 0 1
309 2 0.6 7.485376436717636 3.6744235389625644 1.1466978500172131 2 0 0
1825 3 -1.2 11.070675411136328 5.930364235889361 4.342679046694184 -1 1 2
1764 3 -1.2 11.543286305256022 2.5863892234203543 3.177037145171071 0 0 -2
315 2 0.6 8.495878121350401 6.158180285156971 2.3430722176997154 -1 0 2
2076 3 -1.2 6.724098882904686 1.886707772199279 -0.23151503206785679 0 1 1
194 2 0.6 9.90069884486208 5.133433649400065 -0.12961713669663674 4 1 -4
2115 3 -1.2 11.727588019533458 4.337658215164398 1.524128108153296 0 0 -2
1444 3 -1.2 8.766847898505246 2.361456422336637 4.410929397726424 -1 1 1
959 4 3 11.247774335976699 2.9323831996717398 1.7272977283480682 0 0 -2
363 2 0.6 12.595026205795675 -0.2722470345972827 1.8297939478746788 -1 2 1
455 1 1.2 10.91319828208201 3.786980925872135 5.023298480420009 0 0 0
1938 3 -1.2 9.813141249025112 2.909490263799391 1.250828719668967 0 0 -2
646 1 1.2 9.431467362646249 0.7379322401590063 5.486878351182801 0 3 2
1591 3 -1.2 11.970172883569306 2.006401701528551 0.8510817999290534 0 0 -2
160 2 0.6 8.95616368915175 0.8977191145053633 2.371877918999645 0 2 -1
2786 3 -1.2 11.66716986615265 1.824338876412153 6.171764073620576 0 2 0
590 1 1.2 12.965086173030928 1.3640722463137607 4.291373171696989 -1 -1 0
2112 3 -1.2 7.73566973429889 -0.1988716505734729 0.6455276010984111 0 1 1
2302 3 -1.2 13.805999840943576 5.840548179384931 -0.2488611569103314 0 1 1
56 2 0.6 16.51769806490676 4.677891979167434 -0.09644374554235106 -2 0 2
1889 3 -1.2 15.880027849713873 4.319691598830882 5.9782150132969285 -1 1 1
602 1 1.2 13.772672480586085 4.965882434954044 1.957455137011567 0 -1 1
1852 3 -1.2 15.447883191183148 0.25066907786025927 5.9164091538691554 1 2 0
208 2 0.6 18.58966935912916 0.5413845987743509 1.873244684400741 0 -2 1
1814 3 -1.2 18.394522867611936 6.594325885760298 5.370327587608607 1 -2 0
2090 3 -1.2 14.073330280652543 3.0483036482912733 4.96003316909977 0 1 1
295 2 0.6 17.157236831233767 5.161415373884899 3.957040478723359 -3 0 0
1831 3 -1.2 13.690933609745747 5.276692057710103 5.930024066315426 0 1 1
1246 4 3 19.073503591878744 2.383605761652042 5.277750447300881 1 0 0
1421 3 -1.2 14.879534038599541 4.8727267812368 3.843910426028092 0 -1 1
272 2 0.6 16.10603922381623 1.854338717432579 4.5524393150153974 4 -4 3
1158 4 3 14.624792607062584 4.387773129662784 5.216075772746523 0 1 1
1997 3 -1.2 16.687078850093123 1.8945560485429063 1.772868326100597 0 1 0
1117 4 3 15.258215357647527 1.7453631972191501 1.4790937200447332 0 1 0
2950 3 -1.2 14.63211459432604 1.1312106024591049 2.6929648423530517 0 1 0
1331 3 -1.2 18.313301709811643 5.488784545147952 1.9641211220528976 -1 0 -1
2225 3 -1.2 15.019803372707122 0.8331693503865751 0.31607175897846773 0 1 0
2760 3 -1.2 14.73587932873234 3.1564643579139955 1.3208155453227226 0 1 0
618 1 1.2 18.27152609253946 3.336207835761239 1.8670683999268063 0 3 1
1587 3 -1.2 18.413954284632183 3.1377267736928105 4.169488664865974 1 0 0
2314 3 -1.2 19.32095803152489 1.0074257936852886 4.875895819020787 1 0 0
2009 3 -1.2 20.055913795259634 2.3915835746758014 1.740278195797897 0 0 0
2691 3 -1.2 26.036332393191255 -0.21567960669175057 -0.33693199401126644 0 1 -1
27 2 0.6 20.161326363122008 5.192270505145938 3.5736452349540895 1 -2 5
821 1 1.2 21.00746201106534 -0.1478720174278833 4.0499740510421995 0 0 0
1988 3 -1.2 21.5704903379847 5.60200057763173 1.4499600041051346 0 1 -1
1627 3 -1.2 20.392243525253363 3.0249304583645973 5.661316867465542 1 0 0
1037 4 3 21.722330167131656 5.8181357157664415 -0.021137956436547863 0 1 -1
2114 3 -1.2 23.88151715437057 -0.16808037227917713 3.412555224195353 0 0 1
1675 3 -1.2 26.029242655757283 0.24493165112532023 4.424488168706483 0 0 1
297 2 0.6 24.34299886435494 1.854123087179862 0.012715779067396127 0 2 2
2278 3 -1.2 21.707728079514485 1.9685953045796438 3.4729536687580747 0 0 0
1919 3 -1.2 22.454078262330878 2.600208125187544 1.3425471596023386 0 0 0
2785 3 -1.2 21.346667268815885 0.3837449947246775 1.732579029071729 0 0 0
654 1 1.2 25.22007427773589 4.857085190348731 33.52541172499331 2 2 0
1081 4 3 24.835317358278854 0.8512771404829742 3.874250613601179 0 0 1
841 1 1.2 22.54957156395102 3.009083849319327 5.03452133817158 0 -3 1
2402 3 -1.2 24.254486033971574 1.7320163925170018 4.988924253471264 0 0 1
258 2 0.6 25.025395236465098 5.5163755801447545 4.1985567032116125 -5 1 0
1264 4 3 21.393537466296205 1.8525742794713502 2.0274430271018344 0 0 0
1820 3 -1.2 22.89735804828404 4.720073735889648 4.04021942162899 0 1 -1
2533 3 -1.2 25.283455687621426 4.711350379011077 1.87661398690822 -1 2 1
2942 3 -1.2 25.28619749800878 1.7759414200690116 2.730064595882451 0 0 1
593 1 1.2 23.30277516203862 4.425012052085889 2.0607822215424294 1 -1 0
781 1 1.2 26.617853560991676 3.4637751165049853 2.7454644158686405 -2 0 2
2251 3 -1.2 -0.30342965424336527 1.1130520387617377 3.4773895217899993 1 1 1
1970 3 -1.2 29.340362879247184 6.2198313973318005 -0.2794718425560236 -1 0 1
2673 3 -1.2 26.622214724253762 3.7854164856853885 4.824526145522854 -1 1 -1
2831 3 -1.2 26.93389340731986 5.798150510010036 6.1642924395486425 -1 1 -1
1876 3 -1.2 31.3202410883229 3.3986485147498025 6.491114748318726 0 0 -1
1240 4 3 26.91587727358713 4.294933499139435 6.209974825238342 -1 1 -1
357 2 0.6 27.134983044322794 2.0414172957417325 0.11637838099496443 -1 0 4
629 1 1.2 26.916451625528314 6.051399265852995 1.497557007606507 -2 0 -1
2080 3 -1.2 27.496226004612694 4.574943565770656 -0.022837108176133516 -1 0 1
2351 3 -1.2 33.25099887748477 1.707051752564456 0.47657388369817505 1 0 0
187 2 0.6 32.91580003816216 5.932106758188294 3.487334670108011 2 0 -2
473 1 1.2 30.982167080568995 -0.025303941258318197 4.239460242197064 -2 1 -1
171 2 0.6 31.64838337544384 4.832088393678801 0.06672231377174363 0 -2 -4
2851 3 -1.2 32.85817413498673 0.11509889343423935 5.561803369654712 0 0 0
235 2 0.6 28.120741098888633 1.2352956111392839 4.67613171970075 -3 0 1
2275 3 -1.2 32.36444445667833 3.551897285501727 4.3291765404537985 0 1 -1
536 1 1.2 32.85893391559457 2.7281283945279027 2.196585349977745 1 -2 0
1455 3 -1.2 30.708252672146887 2.712693403451155 1.6942607855457477 0 1 1
2871 3 -1.2 30.528066245063044 1.926724402561066 4.711223267116771 0 1 -1
1859 3 -1.2 30.05342554837351 4.287340279122811 4.585478595746582 0 0 -1
1537 3 -1.2 30.697540546542722 5.650076407728599 2.728105214069922 0 1 -1
2747 3 -1.2 29.40650546541318 1.35811617536783 0.1789764472259535 0 0 0
892 4 3 31.109749709110776 3.232226226071611 4.981946281122853 0 0 -1
2743 3 -1.2 28.341575854986853 5.059413986028986 2.8760243429276873 -1 1 -1
1033 4 3 29.536889654375198 5.454846398577726 3.624256420003929 -1 1 0
1519 3 -1.2 28.314160677409884 2.2204501987432588 2.208937462771102 0 0 0
2837 3 -1.2 30.01953233207492 0.4596647354564387 2.3294997738536134 0 0 0
1116 4 3 29.598079570921378 1.7102391814740736 1.6370914765328033 0 0 0
72 2 0.6 3.62746509865413 12.277774937875307 4.416149693881845 1 -2 2
1868 3 -1.2 3.9137068990532464 7.27025837866408 4.17502446734142 0 1 -1
1141 4 3 5.33852547852742 7.2191412163161415 4.526053554316695 0 1 -1
2441 3 -1.2 -0.07328877848760906 12.301974793019376 1.2959602233104606 0 1 2
818 1 1.2 2.1094198924164806 6.5945530122663785 5.191623975623628 -1 2 0
124 2 0.6 4.309856292304642 7.233469361806276 1.653200234031767 -1 1 4
254 2 0.6 2.066694076042526 12.243383187399463 0.7061490481514954 -2 0 1
958 4 3 2.0673452113700814 10.077356009165948 6.101893629081521 0 0 1
2166 3 -1.2 5.540355840745355 12.606997861904153 5.677227609338164 2 -1 -1
2549 3 -1.2 1.4242013863411167 9.285157606639634 1.2990876593957628 1 0 2
2101 3 -1.2 4.068712253739695 11.88947855079542 2.1666934389810786 0 0 1
2594 3 -1.2 1.7882023369396145 10.613844583726976 4.748263461498551 0 0 1
1040 4 3 4.972711804784207 10.740340938047083 2.3191076046751915 0 0 1
2021 3 -1.2 4.541593988978466 9.63606664976561 1.4420814101107924 0 0 0
837 1 1.2 5.539538939201309 10.480157825960791 5.845724311738658 0 1 0
2984 3 -1.2 6.399031321318488 11.170999157092966 1.9433047394415928 0 0 2
2924 3 -1.2 5.733213152153492 8.287494559965813 5.533306179204515 0 1 -1
1286 4 3 1.8387504667528605 8.895210762550063 -0.08895432560173405 1 0 2
1549 3 -1.2 5.041304794213895 10.288938166201483 3.7155122143131463 0 0 1
392 2 0.6 0.20846736938782373 10.679412622614409 2.8940632195917053 2 3 -1
43 2 0.6 1.9067347924061782 8.505890471912142 3.280646528557155 2 -2 0
1624 3 -1.2 1.9409481122053411 8.589664640652543 6.18614415518247 0 1 1
12 2 0.6 0.16378128160885141 12.493491188501082 5.235761679176488 -4 0 4
2637 3 -1.2 2.8780228649743957 7.882087518756261 -0.17183145419100865 1 0 1
1458 3 -1.2 6.226468000503789 7.259421850597806 3.2835100045641354 0 1 -1
174 2 0.6 8.597199191750777 6.821286343864277 5.274311085045484 -4 2 3
31 2 0.6 10.957202654929757 10.341419756329813 3.9821812312029596 4 0 0
2502 3 -1.2 10.653214720362488 7.618473230119133 2.6108338365711665 -1 1 2
924 4 3 7.816358578429087 11.556234497395193 1.4363086233040416 0 0 2
413 2 0.6 7.694406587462559 8.449779572216135 2.001837524707256 2 1 4
2469 3 -1.2 8.72232822484472 11.44519709931366 2.5842616436135124 1 0 2
2863 3 -1.2 12.132866505843205 8.137469496305267 4.509316653083952 -1 1 2
2028 3 -1.2 12.20308400039906 10.715200091368692 1.8627151123456178 0 0 -2
880 4 3 11.634076392810544 7.085396356257174 3.580806766115707 -1 1 2
2826 3 -1.2 12.824337634039773 6.641452582211807 2.759472118576304 -1 1 2
2054 3 -1.2 11.404566977292182 12.681898135363488 4.791086152923236 1 1 1
701 1 1.2 12.270852580966398 6.955836298879518 0.6865505012720283 1 0 3
2645 3 -1.2 8.094205004012196 10.540871519339342 0.40789061948863237 0 0 2
176 2 0.6 9.204114383418085 11.871253376314284 4.946294860599073 -1 -1 1
25 2 0.6 10.848580083137437 12.611100915624762 2.332374880193689 -3 -5 3
2343 3 -1.2 7.7637822573940625 12.949282483058482 0.9737227765129115 0 0 1
64 2 0.6 10.40627920578531 9.831847142363609 0.3209923987439485 5 0 1
400 2 0.6 13.06918553647641 9.579867069298272 6.0212479301328745 1 2 -1
1204 4 3 12.831751935921904 12.94401991338813 5.056639507739375 1 1 1
2030 3 -1.2 13.113245502786421 8.841520979230848 0.8042394984708671 0 0 -2
129 2 0.6 15.229383637521536 7.747536985962668 0.25232876193695714 -3 0 -2
477 1 1.2 17.79119095074515 12.918716520468923 2.854644886523341 -3 0 1
1217 4 3 13.48295188110961 10.211165013723855 1.2615318990070021 0 1 -2
2342 3 -1.2 13.924373185845292 10.940383373898817 0.0495728960483332 0 1 -2
304 2 0.6 18.4609580386471 11.04371127270385 5.54190718526127 -1 -2 1
1618 3 -1.2 13.538929375425026 11.626860139854653 4.981871550328708 1 1 1
118 2 0.6 15.027225679015677 7.787807067022932 3.560493994201626 5 -2 1
2608 3 -1.2 18.992367169488293 7.825018828836139 1.968157105532468 -1 0 -1
1933 3 -1.2 16.835020862155414 12.611377669340254 0.9767171071258046 1 1 0
1542 3 -1.2 14.657626001684731 10.184177751849871 2.164407995338218 0 1 -2
1867 3 -1.2 17.785739551995523 6.804959087866236 0.035296802455498134 -1 0 -1
1986 3 -1.2 19.13301066029437 8.917780839664541 4.983527516801827 2 -2 0
1230 4 3 19.49680837399755 7.609039464786989 5.613870002494784 2 -2 0
955 4 3 17.96241253212395 6.865344463441563 1.5068424794161184 -1 0 -1
509 1 1.2 16.995928410686965 10.544104968766002 1.1900490071071228 2 2 0
806 1 1.2 15.611725570809154 10.899971382680773 4.163795936580852 1 0 0
1457 3 -1.2 16.605732744120246 7.233796698565741 2.0190664865157437 -1 0 -1
1863 3 -1.2 17.516525294610837 10.893508183713724 3.1123759226125958 -1 2 -1
2578 3 -1.2 15.712177446864573 9.271649082959986 5.450590278945679 0 1 -2
1925 3 -1.2 16.689981049331763 12.664271707836635 5.023083979486802 0 1 1
637 1 1.2 19.251320143199656 9.8105378896786 2.975489589906404 -2 -1 1
2731 3 -1.2 19.35522778947588 10.473606585588096 0.7953831837410972 1 1 -1
2462 3 -1.2 21.595121142289884 10.187269975761533 0.4034773018059874 1 1 -1
1135 4 3 20.436801202330233 10.97953533338759 -0.03781732817821699 1 1 -1
165 2 0.6 21.363941128829882 7.958506088976893 2.038753661492173 1 -3 0
2034 3 -1.2 20.791005881568786 7.057919437310956 5.124118732345597 2 -2 0
2146 3 -1.2 21.35821875692445 7.158875878728019 33.35165359564223 0 1 -1
2045 3 -1.2 20.645405356709887 12.434663329443014 0.05118488923229383 1 1 -1
1291 3 -1.2 20.697095564574077 11.838793950091706 5.281027672108314 2 1 1
628 1 1.2 24.250951725978677 10.668474967353838 -0.12158328931687006 -2 -2 3
356 2 0.6 22.83800259583968 10.826027761199096 2.1303102077952096 1 0 -1
2141 3 -1.2 22.027317405290272 9.940147816774944 5.954004906308202 2 1 1
862 4 3 21.65994831087776 10.824089476720747 4.826805296389353 2 1 1
768 1 1.2 22.696708472072412 6.649669587980377 4.66258732289263 1 0 0
2316 3 -1.2 21.136251075740795 10.102627984032186 3.5792127758758876 2 1 1
2031 3 -1.2 22.9655463343942 11.457435143372349 4.4340772394476105 2 0 1
2784 3 -1.2 23.68700213322903 12.486742057932547 0.8582073439709118 0 0 0
572 1 1.2 24.99014261446742 12.548144694001834 4.330934471769279 -2 1 0
1794 3 -1.2 23.74709263437266 7.715904635277468 3.0485240890901015 -2 0 1
945 4 3 24.952716379929004 8.517541177549978 2.8350725871538147 -2 0 1
1887 3 -1.2 25.232618268828542 9.285450673858865 4.12331447288876 -1 0 1
2372 3 -1.2 24.682320040563702 9.542413209586714 1.7835377533674064 -2 0 1
2865 3 -1.2 26.198538735350134 7.748578764289043 2.5420318747936395 -2 0 1
1058 4 3 26.026909151598353 9.700989162377338 5.386081051532502 -1 0 1
2832 3 -1.2 26.17207756195599 11.200722243418543 5.483269488717475 -1 0 1
1369 3 -1.2 31.809506968101168 12.519085014046663 -0.1751537252323232 -1 1 2
189 2 0.6 26.970417522129633 10.066850969422351 0.8721942174808425 2 -4 -2
2205 3 -1.2 27.31459730769755 9.028074283831629 5.212352623947685 -1 0 1
2382 3 -1.2 31.358567828054156 7.393047700021352 0.5408491536216835 0 -1 1
1695 3 -1.2 29.055082965930538 11.778243298831063 4.708913851594812 1 0 2
692 1 1.2 33.22073260499704 8.127687516781608 1.1408497829426834 -1 2 -1
1520 3 -1.2 32.39987054033541 10.389283352944593 0.9447782287558254 -2 1 2
1766 3 -1.2 32.93081147849222 8.43188011013079 3.266508969047091 0 0 0
2426 3 -1.2 29.245169859643333 6.566017506106347 4.599134137766446 -1 0 -1
2730 3 -1.2 28.11033053748701 10.570325574004725 2.7302139391069282 0 0 2
566 1 1.2 27.838932004856506 12.136625827897799 6.3882004570333 1 -1 -2
1168 4 3 32.92266602750907 11.626386221594153 0.31518777115486474 -1 1 2
2806 3 -1.2 29.061050024913833 7.739328310523881 1.5619053019953042 0 -1 1
609 1 1.2 28.26402738017813 7.426356606533112 6.387395900993431 0 2 -2
911 4 3 28.575658349936557 11.88776860985114 3.30957231056684 0 0 2
2277 3 -1.2 32.50416641560223 10.33212513241221 4.744170978001137 0 0 0
1784 3 -1.2 32.06069696576126 8.039849623600597 5.430782141047711 0 -1 -2
1913 3 -1.2 29.689283778212467 12.468372809908171 2.549669451384364 0 0 2
486 1 1.2 28.673753898832146 8.627979564588937 3.5023707178756105 -3 1 2
1267 4 3 29.884144466870872 7.528417856683168 0.3459710254063796 0 -1 1
889 4 3 31.991456556684753 9.044457276145486 4.263686993987789 0 0 0
2510 3 -1.2 30.64250023459005 9.207274579692921 3.8129293522566643 1 0 0
838 1 1.2 31.13367706643726 11.931553171846083 5.412732049630484 1 1 -1
1957 3 -1.2 27.360630130009596 12.784920059621687 3.319681598168932 0 0 1
749 1 1.2 3.704475808911064 18.806058056219623 0.012576147782623871 1 -2 3
2458 3 -1.2 2.1667819111235582 14.862630050050889 1.0536932466432414 0 1 0
1972 3 -1.2 3.8221601464977555 19.094673204002234 4.880394881421543 1 -2 2
1 2 0.6 5.380449336698409 17.124590852955908 5.041181721251853 1 1 2
445 1 1.2 3.938013628887199 13.848510084220031 1.422621424395294 2 0 1
2797 3 -1.2 2.4764958118788 17.227049529196627 0.6281806516382967 1 1 0
2892 3 -1.2 0.8828724784595818 19.28270209611478 3.383144287070568 2 -1 2
995 4 3 1.5764130861011476 16.04812635977712 0.36787516253091246 1 2 0
2761 3 -1.2 0.14727747297680444 17.534780929896154 6.053513837151223 1 1 1
1506 3 -1.2 0.17357793826749934 16.284541413337653 0.9031228121027884 0 -1 -1
522 1 1.2 3.124490599541737 18.290310291698766 3.002613740407531 0 2 1
998 4 3 -0.028776329939985912 19.661386126729973 2.2559587853982297 2 -1 2
2506 3 -1.2 5.587148859629458 15.230212596916223 1.374470354245146 2 0 1
49 2 0.6 0.4790711292194775 14.073520159728837 2.586338694394635 -2 -5 2
1577 3 -1.2 3.3848860948284023 15.810995561897325 5.799753370593837 0 1 2
1469 3 -1.2 4.907690121726833 17.20044482726421 2.7136934452710983 1 0 1
1720 3 -1.2 3.352230791902168 14.38060356169783 3.8109060873354594 1 1 0
2036 3 -1.2 1.9893888736304621 16.493579232608017 3.933921449095827 1 1 1
2318 3 -1.2 1.2885477198922755 14.578913415374478 5.141323517451249 0 1 1
2542 3 -1.2 5.535978275284289 17.518467079100134 0.46176589411713864 2 1 0
1142 4 3 2.5424952312408773 15.292896964004328 4.651645566043411 0 1 2
1268 4 3 5.807274157889722 16.694673459025697 1.6833669201976504 1 0 1
579 1 1.2 0.11524596476578985 17.30471401537532 3.9219263820170536 3 -1 0
1963 3 -1.2 0.8921681551076726 19.735349381591096 6.669240441695729 1 1 1
2754 3 -1.2 6.099571868539891 14.99760242762729 6.281222637103549 2 -1 -1
2312 3 -1.2 11.076201740811253 19.94900635663615 0.24039098404767476 0 0 -1
2501 3 -1.2 12.155783828600415 13.503677127002979 0.5607584875939562 -1 -1 -1
231 2 0.6 7.808580521249624 19.091683405466075 2.2545520146238522 -2 0 4
431 1 1.2 7.507153583833409 14.533714646307631 2.2768136737304965 -1 3 2
2804 3 -1.2 11.657581591904385 16.646818625606812 4.034925801075028 0 -1 1
2914 3 -1.2 8.696410451119283 16.785326799954213 5.230685061193288 1 1 2
1647 3 -1.2 9.59022757975958 14.898475102993462 2.4129284451415463 1 0 3
563 1 1.2 9.606973428006926 16.75877445314302 2.922913247048258 1 -1 0
937 4 3 8.480206290973525 18.21766519915757 5.095319532466346 1 2 1
1285 4 3 12.344701141922956 17.122461644583506 5.269733102681013 0 -1 1
50 2 0.6 11.936374498034658 15.192372476521012 2.0803402856995374 -3 1 4
2814 3 -1.2 10.162380818565655 17.849134680463944 1.1183409377367268 0 0 -1
1414 3 -1.2 12.140963315231696 18.600337979823415 5.467029388759595 0 -1 1
2086 3 -1.2 7.232257766053872 16.77820380370335 2.1204078031308056 1 0 1
362 2 0.6 9.648794733788229 14.577811781937069 4.739412676738971 1 -2 0
1557 3 -1.2 9.429842779329316 18.580815766152202 4.005809996072409 1 2 1
1821 3 -1.2 7.083698280427616 18.55782794440224 4.769962816904091 1 2 1
117 2 0.6 8.985151340065674 15.791674754368195 0.2840870715779519 1 2 0
135 2 0.6 11.669078109192293 18.807821612276328 2.7587230763692716 -3 0 0
1032 4 3 10.136327093452453 18.799916400279848 -0.049389562002827264 0 0 -1
1996 3 -1.2 6.722645537426789 14.02146172833357 4.1513632772469755 2 -1 -1
960 4 3 6.525355697892271 13.765585140722514 5.59555865660789 2 -1 -1
1727 3 -1.2 8.750841755324863 19.267049042735614 -0.2461063859477346 0 0 -1
1527 3 -1.2 13.08449474933391 13.46128402085615 6.385008133078789 1 1 1
2860 3 -1.2 7.756730142641679 13.321242617292198 6.2976768564902965 2 1 0
1459 3 -1.2 13.070085362014 16.422115335646158 -0.3246977524228356 0 1 1
2319 3 -1.2 18.230841856987414 18.684285037976725 33.350231541519086 -1 -1 0
2805 3 -1.2 14.243904447960558 19.817292208748555 3.8511072347882647 0 0 1
1974 3 -1.2 17.41102360963658 14.689388669525517 -0.08884317789006814 1 1 0
2634 3 -1.2 16.99649069346562 19.831350985120718 5.234366388293834 0 -2 0
537 1 1.2 17.37257262215799 16.770962250362956 -0.2339179654709447 0 2 2
2 2 0.6 14.327096637139984 13.463450399159415 1.6324981536106857 -1 0 2
2792 3 -1.2 13.45848120523287 13.794002175442584 4.041016328235222 1 1 1
2741 3 -1.2 18.633226293626763 19.863762925956923 3.38819977467697 1 -2 0
1978 3 -1.2 18.48842351844222 14.102394521378336 6.023689634032716 0 1 1
2336 3 -1.2 19.74238742163665 13.652965462376962 2.7565973600397005 1 0 0
1653 3 -1.2 13.434659804405529 18.19969509152308 1.26893863910009 0 -2 1
989 4 3 17.057971876864183 13.726834645906226 6.075186966436412 -1 1 1
1471 3 -1.2 15.323399827770547 17.380039406138483 -0.008209543554595501 0 -2 1
2058 3 -1.2 16.09923778807489 14.836491913055973 5.888044729869857 -1 1 1
367 2 0.6 16.466316519732374 19.1515196721202 1.915165350659598 -2 -2 0
2659 3 -1.2 14.378148435206503 15.958925681950745 1.7405268572167762 0 -2 1
2575 3 -1.2 13.785406409830433 16.81343028715947 5.169189391655454 0 -1 1
489 1 1.2 15.383351002556383 18.322666350064573 5.18492093983899 0 1 1
919 4 3 14.045460313142687 16.977271097313647 0.6970238495663957 0 -2 1
463 1 1.2 14.801282278406724 15.560654581098806 3.9455829841862946 0 4 2
2857 3 -1.2 18.697162891636864 16.703285058955068 4.028121979149711 -1 1 2
1309 3 -1.2 17.82189087289633 17.115260598202582 1.919156454868372 0 1 2
1363 3 -1.2 16.295832370870222 17.173275331926703 3.708808677394039 0 1 2
2165 3 -1.2 17.14535398847719 15.043828154420488 3.1071406250665348 -1 1 2
1198 4 3 17.495220498229713 16.478179734692628 3.205557192843885 0 1 2
502 1 1.2 19.692656276239298 18.17573699154329 2.449133090870031 0 0 0
822 1 1.2 19.81720590216294 16.478430606615042 5.7688281122894205 -3 -1 0
1946 3 -1.2 20.071584330529845 19.502766727402282 0.7425785764431065 -1 -1 2
340 2 0.6 19.80844663143124 14.456671542396702 0.355017717417183 -2 2 3
1637 3 -1.2 26.051858026821208 20.45849077235962 5.330471160201986 -1 1 0
850 1 1.2 20.37148730457209 13.649806580632742 6.262479038637102 0 2 -1
2439 3 -1.2 25.299664255866322 16.647377011817078 6.03754068186712 -1 0 1
2990 3 -1.2 22.17541430702814 13.778329616549566 2.396141833482895 0 0 0
1089 4 3 23.4959917039138 13.753263293752568 1.6059995400736398 0 0 0
2272 3 -1.2 24.575057795279903 13.733411979308158 2.6305054727009387 0 0 0
2674 3 -1.2 24.949028653420537 19.233292353220936 1.3414513253339821 0 0 1
19 2 0.6 22.899889148823263 15.719221298427762 6.073853856586189 4 -1 -1
1780 3 -1.2 23.154793042731356 18.157360478540827 0.03704889526582065 0 1 1
211 2 0.6 24.83499773235393 16.675544313999925 1.7030178962247604 -1 -2 -2
1643 3 -1.2 20.83790138509154 15.720558776719109 2.1803099464267253 1 -1 0
2852 3 -1.2 23.501882521906282 14.972788198693868 0.7577328795179435 0 0 0
2715 3 -1.2 23.484774660107274 19.12604061396754 4.595637722807211 0 0 0
1879 3 -1.2 21.629373001749894 18.66387487782167 3.0040454628425275 -1 0 0
990 4 3 23.95406766227998 19.411354341795956 0.251365826699653 0 0 1
1732 3 -1.2 23.23537894238222 16.979642640448965 3.555742626165452 -1 0 0
1009 4 3 25.758764226852968 15.442913144962317 5.330037940302826 -1 0 1
2589 3 -1.2 21.521494674711725 17.790694257806418 5.203710639694603 -1 0 0
2447 3 -1.2 21.183213341983503 14.779120545263336 4.446900663044398 1 -1 0
1191 4 3 20.929823981830502 14.501589219393061 3.027679708382484 1 0 0
1102 4 3 22.47409764836105 18.1445167913411 4.090164788529308 0 0 0
542 1 1.2 22.128252993448605 16.5290025943438 0.47286006566806477 -1 0 0
2140 3 -1.2 25.990126378966274 15.776090844339254 3.922594225626618 0 0 0
2910 3 -1.2 24.871188364230576 14.267421725403954 5.613834211818788 -1 0 1
125 2 0.6 25.784684293066217 18.247738110102333 3.2716288151602564 -1 -3 1
2088 3 -1.2 26.49140792558309 13.822034047080246 0.3959798516905949 -3 1 1
535 1 1.2 26.658453539421796 14.458786707190777 2.3889695305655345 -1 2 1
638 1 1.2 29.145670632005764 14.934665024783355 6.254105094557897 -3 1 0
2694 3 -1.2 28.00073480234839 17.016605103649727 -0.3079186237180246 0 -1 0
280 2 0.6 29.40285110181714 19.59595742322211 0.04329187813812296 -3 0 -2
2390 3 -1.2 29.61433030870824 15.328993144421437 -0.03158085931577723 -1 -1 0
2822 3 -1.2 32.12332904368642 13.666535277586856 4.213987366384599 -1 0 1
520 1 1.2 30.17301828451398 13.473669730593267 0.7787810370453095 -2 0 2
1812 3 -1.2 32.71794878444414 19.351895625765284 5.368124145130345 0 2 1
1710 3 -1.2 28.040167239447875 15.837364323839058 1.7644487550194943 0 -1 -1
2217 3 -1.2 31.412618333290276 14.939883049817503 2.2812301245111115 0 -1 1
2095 3 -1.2 32.38529368360339 16.087081992496152 4.144846477665903 -1 0 1
956 4 3 28.915943468764585 16.381210529419718 0.716141965693619 0 -1 -1
1254 4 3 31.479288808055035 14.881588478080147 3.7587285952895244 -1 0 1
893 4 3 -0.3254659058078815 18.89326045573441 6.511395593266314 1 1 1
1348 3 -1.2 29.899689318872774 18.794602684111176 5.564157897786466 -2 1 -1
2617 3 -1.2 28.081619104059293 19.07443921229421 3.1792925368343417 -1 3 1
1795 3 -1.2 27.17643394291351 14.980109400856389 5.744824659356728 -1 0 1
90 2 0.6 28.554104649318074 16.78342413676652 3.853923455546804 1 1 1
1782 3 -1.2 32.80005780539328 18.596845205872125 2.149969363303723 1 -1 2
14 2 0.6 30.942729401458074 18.312720407829172 3.3566567223681036 3 -4 -1
481 1 1.2 31.93387580901235 16.807691734239793 1.0429288730276511 0 -1 1
1837 3 -1.2 30.119258652108215 15.188005741664435 4.353165603311542 -1 -1 1
2233 3 -1.2 29.941596740372873 17.37488866404909 1.1310098422129364 0 -1 -1
326 2 0.6 3.720038672842704 25.827274911229754 2.8239671935112898 -2 -1 2
1364 3 -1.2 0.44445825895561597 25.764850694109676 3.0808258856452264 1 0 -1
1560 3 -1.2 4.763694770635522 22.430199716369675 1.7161296427141561 0 -1 0
1084 4 3 2.6804340431801164 24.05135355473297 33.51616165918957 -1 1 0
1293 3 -1.2 2.9530520504431195 23.046638891734826 6.510088677596861 1 -1 1
1531 3 -1.2 0.6671417158988691 19.75541747105909 0.9097600354804546 2 -1 2
616 1 1.2 1.4926531924662365 26.78911375072042 4.553714746947342 0 1 2
531 1 1.2 2.1095482778411845 20.051375339556643 5.179363315008978 -1 1 1
2629 3 -1.2 4.575465637044046 22.155442031800597 4.7776881212837425 1 -1 1
2728 3 -1.2 3.0252130864323434 24.773372187524146 0.8605819613363231 -1 0 1
1223 4 3 3.29326162596868 22.887093374941884 5.026745737018767 1 -1 1
1633 3 -1.2 3.44751219277158 24.19379210426672 4.361973764009642 1 -1 1
2187 3 -1.2 5.958625470763115 20.427586932980546 2.3227569255767557 0 -1 0
21 2 0.6 1.0815521096586924 22.60338484630311 2.2236567090027046 5 -2 -1
582 1 1.2 5.601359510735399 20.186232978978442 4.736582439468292 0 0 2
2089 3 -1.2 1.9194516936964625 22.842123973285624 -0.1468079851095379 -1 1 1
1024 4 3 4.808368480199308 20.949191034537332 1.5472339943505191 0 -1 0
1713 3 -1.2 4.895098254077338 20.66071308561621 0.1210770042507434 0 -1 0
1902 3 -1.2 5.474196024111525 26.410295754777547 -0.20235705486426672 -1 -1 2
2102 3 -1.2 1.8522760898173343 25.884310014805884 6.313212301914947 1 1 -1
252 2 0.6 33.436467295726075 22.295921713239704 4.79895872426624 -1 -2 -1
1767 3 -1.2 3.5796647578918455 20.261165323992223 1.9987473480654983 0 -1 0
2538 3 -1.2 2.1488114419274864 22.079235151049094 4.442820472536002 1 -1 1
2164 3 -1.2 6.014978188865507 25.228501069575884 2.4445971742823303 0 -1 0
810 1 1.2 5.300300675392013 24.53939782236391 0.686508887682742 0 2 0
681 1 1.2 5.534971388864115 23.47424414248703 3.3595850808309824 0 0 -1
775 1 1.2 10.897898234374715 25.57816660689905 1.6891462038422564 0 0 0
2242 3 -1.2 8.222097376053018 21.20056252413186 4.779447281825558 0 0 2
2582 3 -1.2 12.59701566621816 20.986580751339183 2.473480477494195 0 1 1
1330 3 -1.2 9.219233954703721 24.426209136755475 1.3181831084817082 0 0 0
1317 3 -1.2 11.891453459344993 23.55229886630848 0.6884418723280539 1 -1 -1
1691 3 -1.2 7.599519561328433 22.905242495282845 3.2159232270140845 0 1 1
255 2 0.6 10.139758478542301 24.619380080882188 5.40866034854007 4 0 0
1714 3 -1.2 9.220225817094454 21.161218616140527 2.5743756535303195 0 1 1
33 2 0.6 10.864272872895599 20.351453157091544 5.015651088473698 2 1 -1
398 2 0.6 12.060761495658346 23.509654074234206 3.40973011134974 -2 1 7
1265 4 3 8.695196162133774 22.034674130304065 3.668032125442171 0 1 1
712 1 1.2 7.96197384460997 25.081211306858147 3.016648286143326 0 -1 1
1134 4 3 8.74738611271833 23.850280643923572 -0.008845353774270565 1 0 0
2554 3 -1.2 10.132249316600456 26.194633425292793 3.656324032317178 2 -1 0