LAMMPS data file via write_data, version 29 Aug 2024, timestep = 3021320, units = metal

3003 atoms
4 atom types

-0.548997646574005 33.76019815272632 xlo xhi
-0.548997646574005 33.76019815272632 ylo yhi
-0.548997646574005 33.76019815272632 zlo zhi

Masses

1 55.84499998563419
2 22.98976927408601
3 15.99899999588435
4 30.97376199003218

Atoms # atomic/kk

469 1 3.2765437104587507 1.442922816488218 2.1074557276427237 -1 -1 2
1095 4 0.7862308372793589 3.191343469533362 3.0370827605862756 0 1 0
2651 3 2.3802436232842936 3.015998511690564 2.9319425646248347 -2 1 -1
2025 3 1.7959692013867934 0.854886522791211 1.0440467875918145 3 1 0
2373 3 0.15442172097499807 2.928654565300399 1.6284594306163824 2 1 -1
373 2 1.2310668180897664 2.805216598666289 -0.2907888519171105 0 0 1
912 4 1.0353756527649918 -0.41890902587222456 1.1509308123119126 -1 -1 0
2511 3 3.7308200124415993 4.21854582362299 -0.30676253586471697 0 2 1
1683 3 4.679915472479095 2.7326351590045492 1.4684998556324036 1 3 1
1436 3 7.008266404725328 1.5637562774803455 2.9986399768544323 0 1 0
1573 3 4.614663097375059 -0.09206557616043598 1.258444745347489 1 0 1
745 1 6.185298681438761 3.433510054046945 2.5546025696694543 2 1 0
989 4 5.041035925028646 3.7418599831377843 0.255713339094534 0 -1 0
1302 3 8.186048387591796 3.3307595682266156 1.674300074544645 -3 2 -1
1303 3 8.369354278785762 0.8646084376410841 0.9498958190540477 -1 1 -1
1106 4 8.355243856861494 1.8177163373379854 2.189842295101444 1 2 2
2683 3 9.521591831301999 1.7161147022797856 3.166184610900503 0 -1 -3
249 2 11.570287186214586 0.54566121012758 3.2645886102498953 1 -2 1
1378 3 12.01625129933452 2.4307418540706114 -0.2755783039434778 -3 1 0
882 4 11.520536535312019 3.8475515074690874 33.468963088035785 0 1 2
2928 3 12.080807755958414 2.70978384198783 2.8941306289143593 0 0 0
817 1 13.198550987021404 2.3835676210589893 1.3083859071621073 2 2 0
2859 3 13.029020314782203 0.432346945171169 1.4006546767241954 -1 1 -1
2735 3 16.422542068959686 1.9855683889089204 0.16662014923933915 -2 1 -2
599 1 16.4572721011213 3.562561520649651 1.4307216237293665 0 0 0
302 2 16.9530362429767 0.3143281057292324 2.4538277866135383 -2 -4 3
153 2 18.94365873589517 1.8902044759058407 -0.07521942141616178 -1 2 1
1318 3 19.204320055106496 -0.302746421943023 1.4741244833523195 1 -1 0
1967 3 18.040803105254344 2.571074932971666 2.242738152060975 -2 2 0
22 2 21.192654718495287 2.3824624890191073 3.2585285228225978 4 -2 -2
969 4 22.545039717518602 1.6844342829385042 0.20876122236974176 1 1 -2
2798 3 23.018545242105684 2.0748009413481774 1.6093148125908308 0 -1 0
2763 3 22.398867482734868 0.1102518930544446 0.07571217968341185 -2 1 -1
2451 3 21.31809954900773 2.4392706941498665 -0.3213246200363042 -1 0 0
853 1 28.49665267268494 3.15079612410181 2.817414040125142 1 -4 1
1825 3 29.083108740606516 2.666799650001208 0.6295195565083958 2 1 0
1415 3 29.409795745883326 0.19023274871177853 0.2909846854598572 -1 1 1
17 2 27.136953864655485 -0.1959849011632417 0.534356320733659 0 -1 2
2789 3 29.57340448195881 1.3475533666889092 2.5611437009535587 0 -2 2
2756 3 -0.4965957027026775 -0.08040689529665024 1.041179150193133 1 -2 1
2809 3 32.26397606427771 0.5656967909618051 3.412766532888631 -1 0 0
874 4 29.881945078852954 1.4159328644069276 1.0577914847667222 -1 0 1
702 1 32.96269595428603 1.75625830089498 2.0250467612602105 -1 -2 -1
2509 3 31.4089624111642 1.6351088206730524 0.7318741481758074 -3 -2 2
2802 3 32.049977374994754 3.1676241100280573 3.0641932795435176 -4 2 1
2403 3 2.4671770993322504 7.512470008989888 2.279920101383788 0 1 -1
2853 3 0.8800401467171279 6.811629110093039 0.44968173489916186 -1 0 0
1167 4 1.5261291461389401 8.053818049812183 1.0551758767971582 2 0 1
2033 3 4.394833732308327 7.09589527323021 3.7791351643152513 1 2 1
1530 3 6.482017810900617 5.21738233518967 3.7094282683190203 -1 2 0
257 2 6.4849959148832514 6.791480948142162 1.6940552505094628 2 0 -1
2619 3 5.825635387279627 4.874378602172605 1.011412620125356 0 2 2
1200 4 12.06414307121436 4.126544316135124 3.5458626345636772 0 1 0
1603 3 10.11545466826282 4.240273912786815 -0.2840759239211433 -1 -2 0
1816 3 8.998945591984949 5.696632282053134 3.387772696622844 -1 0 -1
588 1 9.761617419553149 4.94877744856499 1.5975775734424176 0 3 0
1629 3 11.619121355211018 5.127286386075865 2.420471440934469 3 0 0
2507 3 10.072739555785251 6.956612277580469 1.0544251622546126 -1 0 2
512 1 12.099267217667341 6.6549844115764705 0.9861425020783402 0 2 2
2575 3 14.639837297570667 7.17297296655016 3.8236632184923462 2 0 2
1882 3 14.502079126842427 3.859656092872182 1.4508423019310173 3 1 0
2740 3 12.603612288122015 4.86600744599584 -0.4722709799102502 0 -2 2
536 1 14.759494926583374 5.2731815187382125 2.836592199143317 1 0 -1
755 1 14.629302292238858 4.9487635338687 -0.20049383047591823 1 -1 1
2397 3 14.336526044797303 6.670513596627684 1.3935738715662878 -1 -2 0
1287 4 14.058504307397591 7.902988942877689 2.4873608327987364 -1 1 0
2772 3 12.493077075687129 8.108212492622615 2.329284627340864 1 2 1
2750 3 20.2742304882368 6.176334769369676 3.6870559158997467 0 2 0
2024 3 16.87621411763922 5.170394618070257 0.003149282096892367 -1 -2 2
1977 3 16.674867820195452 4.398873685906095 3.354507119292908 -2 0 0
534 1 19.92922722021515 7.248946964774911 0.3447005620422395 -1 1 2
1863 3 20.3586283076266 5.377775122008286 1.3576663508556146 -1 1 0
262 2 18.016297465971693 6.690102088910327 3.3225313326200885 0 0 6
1319 3 25.03903144029855 4.012011773479647 3.495489429026449 0 1 3
602 1 21.142507191823608 4.6664561513860265 -0.3951074194097896 2 2 3
1117 4 21.27735965563571 5.784073724112226 2.607890105482083 0 -1 1
460 1 23.66513576575892 4.051120929821326 1.8362420663948789 -2 2 2
2540 3 22.208153992151104 4.637322661667183 3.108564551639368 1 -2 2
562 1 23.312907532610783 6.693020573405871 0.4113785373559606 1 -2 1
2850 3 22.034344578102957 7.026151118111422 2.1295439133772733 2 0 -1
1881 3 23.004426662399833 4.7278555033738545 0.1603019202975315 0 -1 0
2107 3 24.882871836381536 5.711881757871722 1.6846102196250925 0 -1 1
2945 3 27.217864764693363 4.570153873557292 2.243545688188738 0 4 2
1233 4 25.853750518782345 5.156217137500739 2.80523385522986 3 0 1
305 2 28.58241497902328 5.093088277183898 0.1446859088226053 0 -4 -1
2339 3 29.764031069633898 8.017191465269654 0.7656821788409514 2 -1 1
18 2 33.19264949340807 5.692443807381553 0.6025160582121079 -4 -1 2
1975 3 32.16236364620592 7.681509567531732 -0.08637046236387413 -3 3 2
317 2 30.33678319071688 7.149077941009576 2.984350959987081 -2 0 -1
1828 3 30.02061862347817 4.547767256492539 3.045976063758929 0 1 -1
1960 3 31.32312692071531 4.480465846699707 0.832345515006363 -1 0 1
927 4 31.41227477560745 4.4480634850629635 2.440720109557023 -1 -1 0
1470 3 32.35939705393167 5.651857687313226 2.827755277110895 -2 1 0
1481 3 3.243807734473139 9.246263405818969 3.9572733819585477 -1 -2 2
2368 3 2.474441399788447 12.15036702671503 1.875630853405816 2 -1 -1
3 2 0.974651239958088 10.188404089691584 3.6731361835448277 4 2 1
1832 3 2.451202801766405 8.747036752601515 -0.004933136746347567 0 0 -1
23 2 1.8736383594310033 11.066259768566091 0.0003395836732740421 -1 -3 -2
2549 3 0.5100625068762721 9.055811562834238 1.6905203311303418 1 -1 0
1251 4 3.7754993788355806 8.250244786238932 2.925779348570688 1 2 1
6 2 4.063788013938694 11.329945923459425 3.511618052783952 2 2 0
2153 3 4.808407447767115 10.57139543805007 -0.33644120740197797 -1 0 -1
1508 3 6.153628796083397 10.227415357263423 3.770204614581576 -1 2 -1
2661 3 4.681488843976823 8.648156593661012 1.7181040877028964 -1 -1 0
849 1 4.3282095421774285 8.69918485530764 -0.26116193640338037 -1 0 4
138 2 6.984413580606646 9.96433165606379 1.5447817668088981 -1 0 4
2886 3 7.820974582562227 8.126473154461682 0.6329144126362783 0 0 -1
1804 3 8.264794934005904 12.164897903622716 -0.3684522960188494 0 0 0
1427 3 8.107217882713615 12.151664846827625 2.1985187529175385 0 2 3
1245 4 9.292392026893932 8.342134090960217 0.7498261785434406 0 -2 0
2679 3 9.539168565874833 9.176639535089835 2.040808752695341 1 0 0
386 2 10.309767297811483 11.323284280834331 2.775880662736327 -1 0 4
323 2 12.762065289867971 10.126547303685653 0.3497884908513492 0 0 3
2816 3 13.378322107117702 12.01055284373452 1.8904094233825361 -2 -1 0
2323 3 14.846852160981227 9.194470404075949 2.2201732178169804 2 -2 1
535 1 14.553869535366248 11.053152951138728 3.25193655844296 -4 0 2
1379 3 16.436156037669107 11.719381989531355 2.8675843173985403 -1 2 -2
385 2 16.32673076897795 7.836000678003236 0.48071514406042054 3 3 -3
227 2 16.77950169931677 12.05206828684304 0.616450337535359 2 0 3
1186 4 19.341039394944808 9.720516339782133 1.4568424482094702 -1 4 1
1708 3 18.793864775135134 10.99265711329682 0.8510295078952284 -2 -1 -1
1400 3 18.419221505334786 8.504575122236368 1.4062897522010378 0 2 0
2285 3 19.920395856044184 10.095852183912566 2.832721271547492 0 -1 1
2247 3 20.633149277366535 9.223932164474522 0.708002443279964 1 -1 2
1618 3 23.008591004595758 10.280595419036086 1.8232301345128892 0 0 0
533 1 21.692338118121857 9.02767313915845 2.5837144585811034 -2 0 -2
1031 4 24.19701399409876 9.495233263496647 1.1910607982321142 -1 1 2
2868 3 23.64576964928236 8.738680847261248 -0.10167136654858128 1 1 -1
252 2 21.503486339126717 12.021017592597492 1.2698770218954807 -1 3 -3
2995 3 24.702917787483496 8.37203099638947 2.079364680227382 -1 -1 1
141 2 27.194833705162228 8.510760828046406 1.0159916623114023 2 3 -1
2481 3 28.490227253107548 9.14073339023009 2.986661170915653 -1 0 0
2079 3 25.45314000202803 10.369879239515509 0.9295993569609692 0 2 0
332 2 25.3665320884518 11.928433922536332 2.8487283815952424 2 3 3
1876 3 28.37303055476417 10.793292637619372 0.6897786570193012 -1 -1 2
690 1 32.90893750953835 9.373790640213745 0.9598903939673429 -1 0 4
1502 3 31.754387383597102 9.075029719512965 2.6244618333593595 -1 0 1
1661 3 31.128310454326016 9.89780671022735 0.01176926977965116 0 -3 0
931 4 30.821132475450355 8.36380570476247 -0.34075263022658664 -1 3 0
2121 3 30.661151131507477 11.114594291470882 3.138587868714312 -1 -1 -1
684 1 29.885284063028614 9.809227479759354 1.7121198493950747 -1 2 3
1030 4 31.825267383530704 10.224151033597238 3.6423077738802943 -1 0 -1
1000 4 1.6538461925942727 13.23140438864513 2.649511423148527 4 0 1
823 1 1.2003054774253563 15.959370380738292 2.176422457943113 -1 -3 -2
600 1 0.014092191846266644 14.128463816006343 -0.010590974219814787 1 2 2
1997 3 0.33521326186451106 13.764170495334806 1.953877994658928 2 -3 0
2963 3 2.470296041527962 14.56276478310193 2.8085981769719313 1 -2 -1
2371 3 1.5737864891559674 15.577823075132649 0.15943485683408906 1 0 0
1549 3 7.5585562643669775 14.226563169037405 0.7605341398183024 -2 0 1
747 1 7.772791622905663 16.16597854699405 0.3930630298874514 1 2 -1
2044 3 7.881010492801318 16.369703719049856 2.474405723438743 -1 -2 0
1217 4 8.473710562744893 12.993790590586675 0.9672355123747717 2 -1 0
1982 3 9.944812992221943 13.392375160415575 1.0437194708440654 2 -3 2
779 1 11.026287171663945 14.454159590985094 -0.16917266865711086 0 1 3
2836 3 9.802111903534323 16.098202098032765 0.11120190645072714 -1 0 -1
2636 3 12.228070328852299 16.61511797799037 0.3954317918535954 -1 1 0
82 2 12.384519670895177 16.628390420934846 3.1402915193782235 -1 0 0
1986 3 12.682853552663026 14.013849719529281 0.5086786565070006 1 0 3
2110 3 13.65119644763566 14.424894653623092 2.838120109568549 1 3 -1
924 4 13.702464250351268 13.491720977000693 1.5604614796505591 -1 2 2
2795 3 15.135746639298599 13.614205646533216 0.8832969298801291 2 1 3
754 1 15.893207569424732 15.215205364494508 0.1105713100020279 -2 0 0
1978 3 16.069010471093772 16.294240251848592 1.8869525668836467 0 -2 -1
363 2 15.763783025084571 15.208803007941476 3.9829108712741514 0 0 -2
2578 3 19.624912190700343 15.65998018141072 1.0500076127688491 -1 1 2
2384 3 17.702044874310133 14.479441120625655 0.18705731132485115 0 0 -3
1239 4 18.891601805149843 15.243937872753104 -0.3433932728363763 -1 1 0
2108 3 20.96950561083287 14.015313632180332 2.449363358774698 0 1 -1
1225 4 21.116911867824566 15.293353597725998 1.6351223719266839 1 0 1
2801 3 22.18449455286688 15.18025599182115 0.5727370149436831 1 1 -1
375 2 24.44359798400155 14.714728931194221 0.14477970986728805 1 -3 -1
1107 4 24.54937295776981 15.471057425082432 3.297719475506399 -1 -1 0
1758 3 24.797525962981293 14.34499607906878 2.3251140067753777 0 -1 -1
1315 3 21.29404367442982 16.416794716186974 2.727690817736048 1 -2 1
1087 4 28.095882656033798 12.25598930680624 1.0505531096954854 1 0 0
2476 3 28.171398299826084 12.481847866419358 2.6076187035679284 0 -4 1
2968 3 26.71549111622052 12.745937969004226 0.46344124685050225 -3 1 1
84 2 27.226786762192287 14.687176897018183 2.6807185492549115 -2 1 0
1294 3 27.06124267407014 15.505378820724111 0.2616937880833429 -5 -2 0
1963 3 29.10485865754449 15.868168220097573 3.0564350092261123 -1 1 -1
2132 3 29.102140509943393 13.154622029418235 0.2671432560795636 0 -2 2
2390 3 29.02816321802084 17.106685194642505 0.15917484587283212 1 -2 -2
2733 3 32.674156333677985 12.844515733899192 -0.05645232625841884 -1 0 0
2147 3 33.623813548433176 16.390562662889792 1.6033008016367116 -1 -1 -3
218 2 30.924313447061756 13.313412361209435 1.5935343221105704 -1 1 -2
976 4 32.49746534036217 16.278247680394166 0.5642506974313238 0 -1 0
2425 3 31.294392385812305 15.38622813358194 0.9459780806952063 -1 3 1
960 4 2.0363867600257453 17.059485719960563 0.013009823272652111 1 -1 1
1658 3 2.325734732457373 17.515319129269006 1.4480637374065848 -1 0 1
240 2 2.969077514114445 19.772648779273318 2.4792280378749476 1 0 -4
2097 3 -0.15418040204380534 20.830216992504432 0.9531939237031946 2 -1 0
1519 3 6.15352104652096 17.289403259655238 0.917093375713918 1 2 -1
1027 4 6.674920272258953 17.506533513908472 2.3945324110004322 0 2 0
494 1 5.021463082402558 18.112993722505717 -0.4357895494733051 -3 -1 -2
1853 3 5.071658268229439 19.66083900060832 0.6660848088846562 3 0 0
1678 3 7.548213930396619 18.800258632677217 2.6860896074172667 0 1 -2
1387 3 5.663930557728559 17.11249515098915 3.516446244086534 0 0 1
1164 4 4.493989005489073 20.69121641185527 -0.32320357202986527 1 -2 0
2829 3 10.57480364888548 18.04981703150804 1.7173546506094897 0 0 1
864 4 10.830861106815671 17.292661949256544 0.38941849408161106 1 1 0
697 1 9.314576771267335 17.66497011098833 3.195906262188402 -3 -2 -3
733 1 13.914804021508514 17.482049306783132 -0.3164909665759369 -2 -2 0
2491 3 14.366115789764626 18.163582758264653 1.4715450724089814 1 -2 2
883 4 15.725726763454052 17.78748552115006 2.136679879307648 -2 -1 1
320 2 13.398686356071698 20.38247686984645 2.228880012138122 -3 2 -3
1945 3 15.622277246893564 18.098554119648547 3.647980345476024 0 2 3
1619 3 18.717058220247615 19.47297446391697 33.54638081399002 0 0 0
762 1 17.12481236434031 18.189187153589142 -0.516752090297043 -1 -1 -2
1296 3 16.83257109806044 18.63827485764254 1.4255656391599851 -1 -1 1
259 2 18.87115567442447 17.48885925891835 2.4504040236838143 3 1 2
651 1 17.50908400097357 20.646207788747628 2.2098707661682027 1 -3 1
1026 4 19.741046390585336 20.06991008873711 0.3118094894907078 1 4 2
1880 3 19.261149733973763 19.832136925929234 1.7175426061894536 0 -1 1
2423 3 21.046497300603743 19.197556400526857 0.07312112786356266 -2 0 1
1477 3 24.116755224059602 16.772702739078973 2.519935196769862 -1 1 0
2532 3 24.126150841531597 19.52986114229227 1.613071607465292 -1 1 1
318 2 22.22405792862795 18.25999396741751 1.9278710929695062 -3 -5 -4
773 1 24.898672619888707 17.750688625010252 1.0078113595765126 0 -3 -2
801 1 24.687755388765794 20.229692728250395 3.438372774936383 0 -2 -1
1163 4 24.384844279900765 20.897714855369667 0.8534602254355861 0 1 0
1714 3 26.805773533022496 17.71535234892021 1.3097902673233721 2 0 0
965 4 27.45773021987961 17.006244233942 0.12150608731047087 0 0 2
2593 3 25.554473825095275 20.851163355616002 -0.21461675483423284 1 1 0
125 2 27.411695060521996 17.439820414918017 3.605974730304328 -2 3 3
118 2 30.056534115922002 19.357370556205005 -0.2816573143945598 0 -6 2
1290 3 31.381893408697543 16.521433203365426 3.752816628956193 -1 -1 1
2391 3 33.55685611303649 20.439289335756186 3.3798952984986936 -3 -1 1
300 2 33.25322086518051 18.23128430516635 3.1830954495570376 1 -4 0
1910 3 31.776621359161684 17.620031580231135 0.21953817204944867 1 2 -2
689 1 30.286698979973856 16.976428578054225 1.7375262354358287 0 0 2
2443 3 29.821695616623504 18.800567804299213 2.3512194007714275 2 0 1
873 4 29.996332581130954 19.672010179750266 3.574282331171835 -2 1 -1
1965 3 3.2461872082099616 21.318021818309802 0.38264931185413903 0 1 -2
340 2 -0.39882933926390995 24.889222928003353 2.0515325203974504 -1 0 1
2730 3 2.3406124823714882 24.162514438815883 0.06384183436850475 -1 -1 2
1495 3 1.3306367983240763 21.707553379300126 2.8737801116137187 0 0 1
1172 4 -0.08432837625572864 21.40099518732639 2.4052581229614862 0 1 2
313 2 2.8952886307098744 23.138969423669312 1.9826888376762761 2 2 2
2977 3 1.3636439517693555 24.539837414669485 3.566879359535175 0 -1 0
1959 3 5.4676962108060225 21.846578193189483 33.698156290088065 1 1 0
1121 4 5.763242448219769 24.991828585877816 0.5156340341194267 1 0 2
2967 3 7.3257568727533835 24.72638940896504 0.6091988042183347 1 -1 -1
2533 3 4.925107481558553 24.184083448934473 1.559890961806338 0 -2 0
2918 3 7.72082900556836 23.064473493283735 3.3357096664730066 1 -2 -2
163 2 5.457938353345349 24.65013440775896 3.914156480435761 2 1 -3
272 2 8.657285462363744 20.8141672178562 2.6416477493996178 3 2 3
2885 3 11.904185264717798 24.122553132379796 1.259111169885435 -1 -3 -1
2804 3 9.669343144075048 23.126134679814776 0.8115931883401717 0 -2 0
719 1 8.521924259306612 24.423779451307134 2.0675341386943673 0 0 -2
1448 3 11.220792182556258 22.14002185871294 2.6680462233566673 2 1 -1
1081 4 11.081736453674049 22.805329385128395 1.2836037464979988 2 2 0
1325 3 11.768380049466948 21.85582781367446 0.19603188218955533 0 -2 0
2552 3 10.058777185962962 24.780652428650978 3.6205507855804853 0 -1 -1
2040 3 13.735300774429467 25.22185204064971 3.777854317007133 0 0 1
1829 3 15.612753521764855 20.978285079199406 2.3735682633694455 -3 -1 1
1181 4 15.62490249809802 22.140985340965443 1.2751154717785271 -1 0 0
175 2 13.94529199171891 23.99925719051667 -0.04822033992491857 3 -2 -3
1512 3 14.73112985736262 21.800856774163233 0.0722784374157959 1 0 0
1394 3 15.186059892058795 23.44236762940703 1.953706576646638 -1 -2 1
713 1 15.747972294058815 24.939252402490872 3.2660312243183016 -1 1 -2
2993 3 19.984124358714944 21.51257227773395 -0.07719594269996509 -2 2 0
1761 3 20.302573338710225 24.5317455924719 -0.16119327091856975 0 -3 0
832 1 18.853354633358627 23.08442372773453 0.5710570784304493 1 -2 0
1528 3 17.515466519784383 24.28227665059724 3.474392519645164 0 -2 2
1520 3 17.167574745628944 22.192320051880877 0.8789752142051265 -1 -1 1
2872 3 19.625959141480426 23.272042492898496 2.4971567128852397 0 -3 0
909 4 18.596777035583482 23.225973388965244 3.7184225234356423 -3 -1 1
2547 3 23.14463330000767 24.416106242661396 1.2418451641794082 -1 0 2
365 2 23.43417650830888 23.424168242928687 33.37879623349488 1 2 1
1785 3 23.088519187864176 21.316686122548152 0.11586060420958573 2 0 1
321 2 21.96480373235143 22.578860358307065 1.824682829324601 -2 2 -3
2745 3 24.2429143986531 24.730664984943555 3.6154463302393425 2 1 -1
2226 3 24.634805345150184 21.82818097904099 2.0823093404747257 0 -2 0
524 1 29.304355610628424 22.311978895916162 3.756842185378826 -2 -1 -1
238 2 25.863010969923284 22.96535306002637 3.440528568454025 0 0 -2
2770 3 28.21517199660573 21.341595634265712 -0.02456120123791434 1 0 0
1831 3 27.0920839666041 23.56165032233383 0.05177987349421544 -1 -3 0
2086 3 28.18886847736328 22.581517854295278 2.1737659611611635 -2 0 -2
1072 4 28.32738636879977 22.75740760002847 0.668630558676275 0 -2 1
1936 3 29.649428527662128 23.37183473222967 0.10621320480201915 2 -1 0
2041 3 30.802343708357874 20.962760646489578 3.235699216119489 -1 -1 2
417 2 31.376535266439827 22.14326407174239 1.2039275675312913 -2 0 5
2814 3 33.313888761976145 22.64601345641745 2.453163635594227 -1 -1 -1
122 2 0.6672822015616207 28.271180574004735 -0.5077879375887612 -1 -1 1
1813 3 2.6524437376064682 26.706507401489674 -0.13499466283073072 2 -1 2
2518 3 0.33001038171469277 25.59819616318365 -0.11739363973313009 2 1 1
1835 3 0.8068024451318943 26.993419104142667 3.412184905471674 3 0 0
344 2 3.7100738596766654 27.19377820187484 1.8640488411312992 1 -1 0
1190 4 7.700505022527862 27.278892274623125 3.5651720432059646 2 0 0
1646 3 4.6093873822734945 28.683558378295583 3.2160453499612927 1 -2 -3
2208 3 5.632023864831231 26.513155421073222 0.7111320698663722 -3 -1 1
845 1 7.591366048316177 26.968281574865674 0.42352116570320447 -1 4 -1
1438 3 7.672922263238629 29.07248933947599 0.46414568932030453 -1 0 1
2998 3 7.7125282443228365 28.791752834179313 3.359110213135972 -2 0 2
2755 3 9.124707878553759 26.572972682301575 33.502120796648505 -1 3 -2
1402 3 8.087277955981502 26.49727881015904 2.3446571772890956 -1 2 -2
136 2 11.364802439184558 25.840789676469615 -0.3838798488169981 3 2 2
261 2 11.71765884626387 28.579224193178447 2.8007857749480425 -1 3 5
843 1 12.004464358060332 25.480404873838214 2.688375956050549 -1 1 0
2421 3 13.93117295202273 28.254559013898405 3.7719297504207527 -1 2 0
2589 3 12.80046804872118 26.788096904823046 1.460674353022811 2 -1 0
2844 3 15.353386297693223 26.21969252602078 1.4454427786549775 1 -2 -1
2682 3 14.701491492541768 28.429338563251974 0.5315439858198211 0 0 0
1238 4 14.107944326636689 26.936312863446418 0.7160167942209391 0 -2 0
665 1 16.34485976916701 27.765730775212244 2.0394872646496323 3 1 1
358 2 18.92186262303152 26.464784228214015 3.575831017986618 1 -3 -3
2176 3 18.475052034837077 26.30366860452324 -0.5299066053440031 0 -1 2
1763 3 17.98858544272877 28.21735504970828 1.030879243006751 -1 1 1
1224 4 19.183666699399406 27.453984130525786 0.4709681657304133 -1 0 1
1768 3 20.147223447195422 26.870280171928243 1.5153745351237453 0 1 1
2999 3 20.854183241342454 29.142649833839492 2.8934351642410325 -1 -2 -1
532 1 22.25264657461939 27.97374371414997 3.5909325450033758 0 1 -1
1005 4 23.959811001302192 25.35326929810851 2.266268208279689 1 0 -1
704 1 21.65310606100117 25.793716769572853 0.9287175000686035 -1 1 3
2482 3 22.79494753717219 26.4971695901584 2.314475080143379 0 -2 -3
21 2 25.284517697788118 28.56423891269275 1.323376955273167 -5 -3 2
174 2 27.30364923374314 25.96100483807303 3.3573510727784224 1 -4 -5
2639 3 25.242157950954685 25.94559528235755 1.7006634330891486 1 0 1
608 1 26.32687559553831 25.51045069197522 -0.018218576768758803 -1 -1 -2
1126 4 28.58411257368307 27.585670573665567 1.1151221812233296 1 -3 0
2571 3 27.958398553128617 26.113926633549983 1.005899514276791 -1 1 0
1931 3 28.32224453072661 28.167943143317302 2.564862015641319 -1 -2 2
1759 3 28.117944763663186 28.50673145012009 -0.016705611998336842 1 1 1
483 1 33.32351396083938 27.74222705324701 3.962673040499509 2 2 1
2662 3 32.18307440660274 25.979959530631238 3.604039680798864 -2 1 1
190 2 30.195251081029056 25.40243198107709 -0.23392020510698716 1 -1 3
1778 3 30.08965705602767 27.386482134603302 1.0177745584365374 -1 -2 -2
729 1 30.424316731810684 27.79907772948848 3.0074796421557135 -1 2 1
2956 3 32.167149537738496 28.747933335512336 2.6470551746862774 -2 0 -2
263 2 0.9707324794649048 30.740061387009405 3.1814814439853336 0 2 0
2273 3 1.1306012042053806 33.14077167407203 2.5403705906578313 -3 -3 1
2729 3 1.5142477349598225 32.98199956374313 -0.08751512652339127 0 -1 2
587 1 2.846857177443758 31.424615480559925 0.3611543388972334 1 -2 1
2947 3 2.9871902982987164 30.294223787675126 2.0208160404550646 0 2 -1
1957 3 4.510022614980289 32.26242903044438 -0.3412193713357074 -1 0 -1
1257 4 4.832467713599245 33.758805545073315 -0.20353022270752513 -1 0 1
351 2 5.338380739983512 33.3299882582652 3.0590489481324123 1 0 0
1042 4 4.1258363701682095 30.106814989412335 3.0142753339023955 1 -1 -2
1824 3 7.420102795330759 31.490448320680773 0.33939723850668696 3 -1 2
445 1 7.101058730657956 30.23941829202728 2.0960870742723863 3 -1 1
1996 3 5.382925118978802 30.98122006305187 2.7494893494942247 -2 2 -1
828 1 8.16770454969501 33.343463444662646 0.17561472316018453 4 -1 2
918 4 8.001667449796368 30.290217005849282 -0.5221528201856798 1 0 1
1526 3 10.515615153585301 32.59159571457185 3.5520007284351998 2 2 2
776 1 11.133370574090915 31.40030410675128 -0.04481944874466104 2 -2 -1
2146 3 8.475630611131146 31.38954690345859 2.8463222059734066 0 1 -1
2731 3 9.857487158878554 32.702406597413045 1.0288974268436666 1 -1 -1
2975 3 10.835318143493632 30.67690288297585 2.005820329889757 0 2 1
1020 4 9.828901365106857 31.943208259738842 2.317340900990079 1 0 3
626 1 12.284795642706047 31.428786722930788 3.2439024159853935 -1 -1 2
1356 3 16.25809974601935 29.531481726555942 3.0440606244851653 0 -2 0
1271 4 14.766953387734576 29.578687877932627 3.6653435619664 -2 0 1
679 1 15.864674212452766 33.20555825036833 -0.42578739793325227 -2 -3 -1
2752 3 15.227327589076634 33.370562197757295 1.427980877860578 -2 0 4
1008 4 13.701940737131155 33.332389232167685 1.7094337964631403 1 0 1
1515 3 12.9847308113407 32.21944370780669 0.847669012006895 -1 1 0
844 1 13.877566796140345 30.351923253067763 0.49093984257281126 -2 0 -1
2915 3 13.470096751251123 33.10190405044612 3.231866161849139 0 -2 -1
2243 3 13.954873535541559 30.370457686756378 2.6448087754264233 1 -1 0
68 2 19.8763253640048 33.371311636839536 3.4935588396547654 -6 -5 -1
2170 3 17.49118442743539 32.52975380284475 0.3747025643992835 0 -2 2
1193 4 18.903345079527 33.2325018879809 0.21641488647324722 -1 -2 0
421 2 17.558513579800625 30.482464073029426 1.416808912780467 0 -2 -5
1522 3 19.987385426589178 32.04511590822814 -0.04414954071556786 0 0 -1
2640 3 23.539089858142567 29.202776930926433 2.498872265404774 0 -1 -1
327 2 22.06746559878895 29.101238665979125 0.5930875707369174 -1 2 -1
921 4 24.081731846024798 29.88077147912573 3.7661962109225753 -1 -1 -1
287 2 23.21577812783085 33.068443613166096 1.9503403990409751 3 1 -1
2514 3 23.16453434154953 31.34515888625766 0.16003830377632683 -1 -1 2
972 4 24.711982771295453 31.423005809455514 0.037341357779517144 1 0 1
2027 3 24.977700386437757 32.988033282147114 -0.021033113510637417 2 1 1
1728 3 25.6383783160488 29.69657703691886 3.9055259790923555 0 0 0
2055 3 25.34462829685206 30.79348066588572 1.3037532516584853 2 -2 2
2522 3 27.045657995752556 33.196139123504665 2.82735981547327 -1 1 2
574 1 26.219065672680575 31.40667054779734 3.054589170486257 1 1 2
2059 3 -0.46477532181020154 29.818302672774152 0.9353141394496128 -1 -1 0
2053 3 29.714655353165323 32.75706426587699 2.941203449097086 0 1 -2
2942 3 31.364592444138573 30.393318658662487 0.8472215803149398 1 0 0
805 1 33.39870589147134 33.31330708395872 2.925224230215777 2 -2 1
862 4 32.55668207832849 30.064894403242096 1.8141015298687826 1 -1 0
101 2 31.066036564318676 32.73937600308129 0.632136493671636 -4 1 -2
1944 3 32.80905158752461 31.240182403809644 2.7685281420852497 -3 -1 -2
2569 3 1.6958091827046924 0.07844482233005945 8.277583006764225 0 0 3
1532 3 3.2368084955461818 1.705569958789618 6.000346326982081 0 0 2
2634 3 0.19294696588717386 2.140886073312086 4.012090370898897 2 1 0
148 2 1.6793001038706672 0.2955773138369602 4.874465324884307 1 4 5
481 1 0.0028961890463197193 1.2883234901697844 7.895325085976764 1 -1 -1
525 1 3.3688638571338787 3.017518345579551 7.563851706894058 1 3 -1
1089 4 4.392700560690568 1.4354613582617781 5.030930224067461 0 -1 1
511 1 7.0384237904944555 1.9025670529320768 4.886615877618702 0 1 3
1409 3 3.7874077577984373 0.5951472955734052 3.861282951153069 -2 -1 1
2959 3 5.071358679432414 2.752447059278955 4.473007939846148 -1 -1 1
476 1 5.873297064202101 0.0938600320764249 7.7334362225962785 -1 0 -1
2565 3 5.555535018358118 0.637333623721287 5.815959883414718 2 3 1
1443 3 8.22540396299945 3.533803992445697 4.5278608828071905 0 -2 0
686 1 9.824659279785745 2.495637062769342 5.025027178827573 -3 1 2
2992 3 11.673917658743157 -0.1307081584916564 7.561863758145378 1 -1 2
2554 3 8.409561591054581 1.3498002008618981 6.230689287439733 1 0 2
1667 3 12.11394535895654 2.2833448085262145 7.387029784094009 -2 3 3
885 4 8.357219368479864 2.0158193499971744 7.685811945757103 -1 0 0
2187 3 11.120695530701513 1.0193260991501125 5.361724686761352 0 0 2
2739 3 8.5946945897729 3.56004402603614 7.647494223097663 3 0 -1
1011 4 12.141943209931425 0.9602363969341408 6.547932132347735 0 3 1
1 2 9.295245609427948 33.66558886612529 5.422066046551195 1 -2 0
1938 3 13.57780029904334 0.8729259752348004 6.050327135102316 -1 0 -1
572 1 15.323599168683266 1.6639923927945737 5.938124372183855 -1 -2 1
1375 3 15.67001683159127 3.002627597733414 7.373501494908987 0 0 0
2521 3 16.418755876755966 0.15051467241417282 6.69518667077126 0 -1 -2
1270 4 17.671989830977726 3.159642192331472 3.67261547130142 1 1 0
1705 3 16.916788640030497 2.087835024016605 4.526235802327282 0 0 3
208 2 19.107237583042313 1.941283599704796 6.3186006575146525 1 1 1
1897 3 18.770330478585368 -0.3684413453423857 5.487752026462093 2 0 -2
2437 3 21.869578683553687 1.8387405550744131 5.651679053969072 0 1 2
1574 3 23.974416472642325 0.6711941886250212 6.034931762825335 2 0 1
970 4 22.533705057626616 0.45515491250280626 5.444713572601646 3 0 0
664 1 23.457505680637585 2.396277665298157 6.899972802793392 -3 -2 1
1467 3 22.396332100568422 -0.211760495833634 4.025078683824864 0 2 3
2783 3 21.917455657636022 33.624063622296845 6.332667042488021 0 -1 -1
2990 3 25.090758559602314 3.371696857474232 7.185806490344349 -1 -1 0
295 2 25.8414192236803 2.378102223411087 5.064518164167226 4 0 -2
1559 3 28.633144166310203 1.9491010630934151 7.015906277679231 -1 1 2
1401 3 28.54841818278389 33.72240195815214 4.85187816469249 0 0 0
2988 3 28.089114278239993 2.8899143796055644 4.77609502557737 -1 0 -1
123 2 29.126752433570665 -0.3234827607209364 7.024819999712254 -5 0 -6
1178 4 29.28785352459848 2.6438592403373855 5.812654170666125 1 1 0